<?xml version="1.0"?>
<VTKFile type="UnstructuredGrid" version="0.1" byte_order="LittleEndian">
  <UnstructuredGrid>
    <Piece NumberOfPoints="1826" NumberOfCells="499">
      <PointData>
        <DataArray type="Float32" Name="stress_xx" NumberOfComponents="1" format="ascii">
 -7.000E+003 -1.624E+004 -2.341E+004 -3.045E+004 -3.789E+004 -4.608E+004 -5.427E+004 -6.186E+004 -8.496E+004 -5.748E+005 -5.831E+005 -5.885E+005 -6.558E+005 -9.218E+005 -1.213E+006 -1.243E+006 -1.213E+006 -1.237E+006 -1.207E+006 -1.265E+006 -1.327E+006 -1.455E+006 -1.837E+006 -1.680E+006 -1.665E+006 -1.630E+006 -1.740E+006 -2.384E+006 -2.351E+006 -2.390E+006 -2.318E+006 -2.323E+006 -2.243E+006 -2.283E+006 -2.335E+006 -2.527E+006 -3.127E+006 -2.760E+006 -2.713E+006 -2.598E+006 -2.628E+006 -3.411E+006 -3.703E+006 -3.739E+006 -3.616E+006 -3.561E+006 -3.400E+006 -3.333E+006 -3.293E+006 -3.409E+006 -4.032E+006 -1.722E+003 -3.892E+003 -2.685E+003  1.014E+003  5.443E+003 -3.315E+005 -2.886E+005 -1.795E+005 -1.684E+004  1.216E+005 -5.089E+005 -4.320E+005 -2.438E+005  6.827E+003  2.247E+005 -6.622E+005 -5.542E+005 -2.933E+005  2.531E+004  2.649E+005 -2.426E+002  2.664E+002 -2.200E+003 -1.355E+003 -6.299E+002 -2.192E+003 -4.343E+003 -6.952E+003 -5.506E+003 -1.504E+005 -1.355E+005 -9.390E+004 -8.228E+004 -8.303E+004 -2.943E+005 -2.657E+005 -2.577E+005 -2.065E+005 -1.756E+005 -1.631E+005 -1.456E+005 -1.863E+005 -1.471E+005 -4.502E+005 -3.950E+005 -2.819E+005 -2.357E+005 -2.354E+005 -5.713E+005 -5.138E+005 -4.952E+005 -4.053E+005 -3.453E+005 -3.153E+005 -2.797E+005 -3.401E+005 -2.778E+005 -6.901E+005 -6.025E+005 -4.261E+005 -3.419E+005 -3.645E+005 -6.861E+005 -6.229E+005 -5.909E+005 -4.734E+005 -3.909E+005 -3.393E+005 -2.946E+005 -3.858E+005 -3.471E+005  2.653E+002  1.048E+003 -5.244E+001  2.162E+003  1.484E+003 -6.208E+004 -3.994E+004 -1.270E+004  4.092E+004  3.620E+004 -9.752E+004 -5.873E+004 -4.229E+003  7.383E+004  7.533E+004 -1.532E+005 -1.046E+005 -2.421E+004  7.697E+004  1.038E+005  2.022E+003  1.618E+003  4.743E+002  2.544E+003  3.361E+003  1.868E+003  1.215E+001  3.880E+002  2.975E+003 -2.716E+004 -2.522E+004 -1.235E+004 -2.069E+004 -9.579E+003 -5.553E+004 -5.595E+004 -5.161E+004 -4.408E+004 -3.052E+004 -4.145E+004 -4.729E+004 -3.269E+004 -2.844E+004 -9.106E+004 -8.122E+004 -5.020E+004 -6.276E+004 -3.924E+004 -1.315E+005 -1.274E+005 -1.160E+005 -1.021E+005 -7.801E+004 -8.879E+004 -9.061E+004 -7.009E+004 -6.552E+004 -1.237E+005 -1.079E+005 -6.400E+004 -7.419E+004 -5.911E+004 -1.455E+005 -1.403E+005 -1.276E+005 -1.044E+005 -7.693E+004 -8.372E+004 -8.491E+004 -7.422E+004 -8.312E+004  3.067E+002  5.060E+002 -2.960E+002  2.978E+003  1.493E+003 -1.606E+004 -1.212E+004 -5.360E+003 -2.164E+003  2.055E+003 -2.167E+004 -1.365E+004 -3.249E+003  2.349E+003  4.193E+003 -4.008E+004 -3.250E+004 -1.374E+004 -3.632E+003  4.032E+002  5.128E+002 -2.580E+003 -1.911E+003  2.862E+002  5.090E+002 -8.885E+002 -1.440E+003 -4.422E+002  9.199E+002 -5.041E+003 -5.319E+003 -2.131E+003 -2.238E+003 -2.225E+003 -1.172E+004 -8.997E+003 -9.595E+003 -6.785E+003 -6.042E+003 -3.990E+003 -2.050E+003 -3.564E+003 -1.580E+003 -1.845E+004 -1.696E+004 -1.122E+004 -8.373E+003 -7.209E+003 -2.506E+004 -2.367E+004 -2.371E+004 -1.793E+004 -1.700E+004 -1.202E+004 -1.153E+004 -1.047E+004 -6.665E+003 -2.726E+004 -2.399E+004 -1.677E+004 -1.190E+004 -1.046E+004 -2.318E+004 -2.010E+004 -1.824E+004 -1.212E+004 -9.777E+003 -6.006E+003 -4.778E+003 -6.788E+003 -4.408E+003  6.751E+002 -5.367E+002  1.072E+002  2.064E+003 -2.111E+002 -4.116E+003 -1.985E+003 -1.988E+003  1.261E+003  2.570E+003 -3.185E+003 -3.557E+003 -4.020E+002  3.196E+003  2.678E+003 -4.851E+003 -3.937E+003 -8.349E+002  3.459E+003  4.345E+003 -1.560E+003 -3.138E+003 -3.445E+003 -1.184E+003  1.320E+003 -8.121E+002 -2.386E+003 -1.121E+002  1.904E+002 -3.832E+003 -4.302E+003 -1.176E+003 -2.794E+003  2.143E+002 -3.795E+003 -3.565E+003 -4.161E+003 -3.128E+003 -3.112E+003 -2.383E+003 -1.651E+003 -1.527E+003 -1.704E+003 -3.778E+003 -3.549E+003 -2.737E+003 -2.219E+003 -8.154E+002 -3.173E+003 -3.363E+003 -3.137E+003 -3.446E+003 -2.682E+003 -3.769E+003 -3.261E+003 -2.663E+003 -2.026E+003 -3.267E+003 -3.234E+003 -1.712E+003 -2.328E+003 -1.172E+003 -3.298E+003 -4.334E+003 -4.221E+003 -3.644E+003 -2.804E+003 -3.556E+003 -3.346E+003 -3.044E+003 -3.393E+003  7.205E+002 -8.081E+001 -5.547E+001 -6.435E+002 -1.691E+003 -1.600E+003  3.442E+002 -7.466E+002 -5.743E+002 -6.729E+002  5.367E+002 -3.625E+001  4.015E+002 -1.098E+002 -1.173E+002  4.768E+002  1.399E+003  3.773E+001 -3.248E+002 -4.978E+002 -2.386E+003 -2.150E+003 -1.782E+003  2.402E+001 -1.880E+002  1.141E+003  1.112E+003  1.499E+003  1.570E+003 -2.773E+003 -3.007E+003 -2.190E+003 -2.052E+003  1.027E+003 -2.978E+003 -8.000E+002 -1.862E+003 -1.058E+003 -3.163E+003 -2.031E+003 -3.658E+003 -1.727E+003 -1.124E+003 -1.974E+003  4.231E+002 -1.301E+003 -8.721E+002 -1.637E+002 -3.430E+002  1.983E+003  3.352E+003  1.342E+003  1.372E+003  7.712E+002  1.177E+003  2.918E+002  2.961E+002 -2.427E+002  2.654E+003  1.016E+003  4.254E+002 -4.005E+002  1.050E+002  1.341E+003  2.908E+003  2.287E+003  1.528E+003  1.589E+003  2.660E+002  4.694E+002 -1.376E+002  4.881E+002  4.168E+002 -5.320E+002 -2.103E+003 -4.033E+003 -2.700E+002  1.835E+002 -1.846E+002 -1.557E+002 -1.367E+003  6.942E+002  1.633E+003  1.079E+003  2.406E+002  4.194E+002  1.373E+003  1.850E+003  1.684E+003  5.723E+002 -5.897E+002 -1.738E+003 -8.216E+002 -6.932E+001  4.340E+000  8.675E+002  1.643E+003  1.851E+003  2.166E+003  2.719E+002 -2.647E+003 -1.525E+003 -3.276E+003 -1.771E+003 -3.437E+002 -2.013E+003  3.072E+002 -1.032E+003 -1.257E+003 -4.520E+003 -3.589E+003 -4.827E+003 -2.300E+003 -3.223E+003 -8.385E+002  7.167E+002 -8.232E+002 -8.862E+002 -5.085E+002  1.878E+003  1.972E+003  3.872E+003  2.037E+003  2.178E+003  1.393E+003  2.111E+003  8.173E+002  1.479E+003  2.449E+003  3.532E+003  1.956E+003  1.113E+003  3.210E+002  3.278E+003  4.377E+003  3.494E+003  2.630E+003  1.432E+003  1.554E+003  3.803E+002  6.219E+002 -1.074E+003  5.145E+002  1.215E+003  2.107E+002 -2.549E+003 -4.581E+003  1.390E+003 -4.853E+002 -1.007E+002  3.622E+002 -3.574E+001  4.692E+003  3.222E+003  1.130E+003  2.477E+002  6.152E+001  6.230E+003  4.057E+003  2.657E+003  2.161E+002 -8.577E+002  2.605E+002 -4.959E+002 -3.131E+002 -7.142E+001  6.596E+002  1.529E+003  8.802E+002 -1.411E+002 -6.043E+002 -3.854E+003 -3.423E+003 -3.490E+003 -2.131E+003 -9.017E+002 -4.950E+003  1.201E+003 -2.350E+003 -2.033E+003 -5.657E+003 -2.269E+003 -4.217E+003 -1.295E+003 -4.655E+002  1.403E+003  4.708E+002 -6.648E+002 -1.374E+003 -5.141E+002  8.450E+003  5.585E+003  5.004E+003  4.006E+003  3.594E+003  2.231E+003  2.661E+003  1.343E+003  9.029E+002  9.190E+003  5.300E+003  2.953E+003  1.267E+003 -6.331E+001  1.155E+004  1.085E+004  5.476E+003  4.531E+003  2.602E+003  2.176E+003  2.366E+002  4.234E+002 -6.244E+002  5.171E+002  1.184E+003  7.805E+002 -2.460E+003 -3.091E+003  2.358E+003  1.916E+003  8.654E+002  1.010E+001  1.778E+002  8.438E+003  5.435E+003  1.976E+003  7.346E+002 -9.738E+001  1.159E+004  7.025E+003  3.409E+003  2.960E+002 -6.841E+002  2.317E+003  6.851E+002 -8.915E+002  4.027E+002  1.171E+003  2.440E+003  3.167E+003  3.867E+003  5.350E+003 -2.948E+003 -2.432E+003 -3.642E+003 -1.044E+003  1.166E+003 -3.714E+003  1.344E+003 -9.848E+002 -1.557E+003 -6.169E+003 -3.202E+003 -5.138E+003 -2.986E+003 -3.718E+003  2.562E+003  2.193E+003  1.873E+002 -9.726E+002 -8.174E+002  1.004E+004  9.351E+003  8.176E+003  6.060E+003  5.094E+003  3.088E+003  2.843E+003  1.275E+003  8.281E+002  1.153E+004  7.590E+003  4.134E+003  1.555E+003 -3.599E+001  1.382E+004  1.328E+004  8.288E+003  6.937E+003  3.009E+003  2.524E+003  1.689E+002  3.640E+002 -1.065E+003  1.087E+003  9.166E+002  9.921E+002 -4.755E+002 -5.655E+003  3.125E+003  2.023E+003  1.077E+003 -6.075E+001 -1.158E+003  8.678E+003  6.482E+003  2.420E+003  5.574E+002 -4.354E+002  1.318E+004  8.275E+003  4.809E+003  4.105E+002 -9.513E+002  1.842E+003  3.582E+002  7.889E+000  7.777E+002  1.582E+003  2.144E+003  4.339E+003  5.627E+003  6.905E+003 -2.852E+003 -4.459E+003 -5.613E+003 -1.759E+003  3.046E+003 -3.589E+003  5.835E+002 -5.605E+003 -3.018E+003 -8.199E+003 -4.794E+003 -5.714E+003 -4.302E+003 -8.123E+003  2.312E+003  7.004E+002 -1.061E+003 -1.083E+003 -1.767E+003  1.057E+004  7.723E+003  7.344E+003  5.477E+003  6.322E+003  4.009E+003  3.390E+003  1.942E+003  2.480E+003  1.113E+004  7.540E+003  5.051E+003  1.985E+003  4.619E+002  1.399E+004  1.409E+004  8.748E+003  7.036E+003  3.706E+003  3.284E+003  1.224E+003  8.119E+002 -2.029E+003  1.528E+003  1.562E+003  2.632E+002 -2.439E+003 -7.596E+003  3.374E+003  1.945E+003  4.933E+002 -5.885E+002 -6.238E+002  9.836E+003  6.503E+003  2.734E+003  7.969E+002 -7.355E+002  1.473E+004  9.177E+003  5.254E+003  9.496E+002 -1.167E+003  3.120E+003 -1.635E+003 -3.693E+003  8.364E+002  2.547E+003  3.104E+003  2.429E+003  5.076E+003  5.710E+003 -3.809E+003 -6.735E+003 -6.242E+003 -5.229E+003  2.229E+003 -4.947E+003 -3.923E+002 -5.577E+003 -4.479E+003 -1.094E+004 -6.099E+003 -9.095E+003 -5.005E+003 -7.085E+003  2.429E+003  1.098E+003 -1.703E+003 -1.665E+003 -1.535E+003  1.239E+004  9.944E+003  9.369E+003  7.335E+003  7.043E+003  4.131E+003  4.457E+003  2.092E+003  2.885E+003  1.345E+004  8.286E+003  6.116E+003  2.656E+003  3.509E+002  1.574E+004  1.285E+004  7.991E+003  9.174E+003  6.056E+003  5.279E+003  9.335E+002  1.081E+003 -1.886E+003  1.583E+003  1.971E+003 -2.789E+002 -2.497E+003 -1.023E+004  4.456E+003  4.219E+003  6.118E+002 -3.191E+002 -1.362E+002  1.259E+004  8.178E+003  4.519E+003  9.075E+002 -5.246E+001  1.713E+004  1.280E+004  6.688E+003  1.210E+003 -1.070E+003  1.232E+003 -3.523E+003 -6.105E+003 -8.410E+002  3.366E+003  2.625E+003 -1.332E+002  3.953E+003  5.513E+003 -7.120E+003 -8.187E+003 -6.656E+003 -5.730E+003  1.787E+003 -9.123E+003  4.066E+002 -3.053E+003 -2.286E+003 -1.149E+004 -6.054E+003 -7.375E+003 -4.123E+003 -5.782E+003  2.360E+003  3.657E+003 -1.204E+003 -1.444E+003 -1.850E+003  1.585E+004  1.420E+004  1.582E+004  9.475E+003  7.856E+003  5.021E+003  4.893E+003  2.892E+003  2.531E+003  1.857E+004  1.428E+004  7.708E+003  2.523E+003  2.871E+001  2.322E+004  1.995E+004  1.450E+004  1.155E+004  7.169E+003  5.193E+003  1.096E+003  1.026E+003 -2.037E+003  2.596E+003  2.191E+003 -1.033E+002 -1.275E+003 -1.154E+004  4.352E+003  4.784E+003  9.766E+002 -1.115E+003 -3.648E+002  1.761E+004  1.257E+004  5.234E+003  1.503E+003 -4.536E+002  2.437E+004  1.526E+004  7.979E+003  1.399E+003 -1.149E+003  4.074E+003 -5.009E+003 -6.537E+003  2.610E+003  6.033E+003  2.672E+003  1.296E+003 -1.626E+003 -3.596E+003 -7.484E+003 -8.356E+003 -4.722E+003 -6.484E+003 -3.335E+003 -1.060E+004  5.231E+002 -4.711E+003 -5.667E+003 -1.315E+004 -6.745E+003 -9.124E+003 -3.692E+003 -8.027E+003  4.501E+003  4.796E+003  2.685E+001 -1.290E+003 -1.243E+003  2.492E+004  1.912E+004  1.693E+004  1.160E+004  1.102E+004  6.075E+003  5.485E+003  2.328E+003  3.830E+003  2.780E+004  1.316E+004  9.991E+003  3.294E+003  7.077E+002  4.000E+004  3.049E+004  1.030E+004  1.465E+004  8.635E+003  6.916E+003  1.364E+003  1.059E+003 -2.682E+003  6.775E+002  7.129E+002 -1.230E+003  5.434E+003  4.767E+003  1.134E+004  5.825E+003  4.001E+003 -1.728E+003 -2.466E+003  2.527E+004  1.557E+004  6.145E+003  2.654E+003  2.868E+002  3.886E+004  1.916E+004  9.548E+003  1.334E+003 -1.172E+003 -7.239E+003 -3.471E+003 -9.746E+002 -2.200E+003 -2.586E+003 -2.945E+003 -2.094E+003 -1.578E+003  5.411E+002 -1.314E+004 -8.186E+003 -9.487E+003 -7.587E+003 -6.790E+003 -1.066E+004 -4.289E+003 -1.171E+004 -3.760E+003 -1.276E+004 -4.457E+003 -7.692E+003 -1.197E+003 -3.500E+003  7.446E+003  3.961E+003 -1.404E+003 -1.221E+003 -9.969E+002  2.894E+004  1.858E+004  1.814E+004  1.268E+004  1.373E+004  7.654E+003  6.036E+003  3.254E+003  3.717E+003  3.515E+004  1.876E+004  1.169E+004  3.640E+003  1.473E+002  4.783E+004  2.924E+004  1.919E+004  1.540E+004  1.132E+004  7.438E+003  1.551E+003  9.643E+002 -2.598E+003 -1.840E+003  9.523E+002 -3.154E+003  3.753E+003  1.289E+004  1.050E+004  1.894E+003  5.079E+003  7.852E+002 -2.094E+003  2.440E+004  1.416E+004  8.266E+003  2.502E+003  8.103E+002  3.067E+004  2.249E+004  1.143E+004  2.863E+003 -1.233E+003 -6.357E+003 -5.060E+003 -9.580E+002 -9.056E+002  1.497E+003 -1.748E+003 -1.510E+003 -1.510E+003  1.519E+003 -1.687E+004 -8.374E+003 -1.148E+004 -9.354E+003 -7.893E+003 -1.542E+004 -3.934E+003 -1.311E+004 -4.254E+003 -1.239E+004 -3.852E+003 -9.526E+003 -6.871E+002 -3.968E+003  6.594E+003  3.808E+003 -6.489E+002 -2.112E+003 -1.381E+003  2.899E+004  2.207E+004  2.367E+004  1.589E+004  1.368E+004  7.815E+003  7.894E+003  3.690E+003  4.337E+003  3.336E+004  2.188E+004  1.299E+004  4.289E+003  1.240E+002  3.783E+004  3.281E+004  2.222E+004  1.853E+004  1.328E+004  9.261E+003  2.456E+003  1.453E+003 -2.814E+003 -1.383E+003 -1.331E+003  1.077E+003  4.853E+003  1.021E+004  1.208E+004  5.955E+003  5.549E+003  1.248E+003 -2.256E+003  2.428E+004  1.567E+004  9.396E+003  2.907E+003  6.210E+002  3.100E+004  2.405E+004  1.180E+004  2.361E+003 -1.546E+003 -8.807E+003 -2.181E+003  1.253E+003 -1.260E+003 -8.060E+002 -3.833E+003 -4.568E+003 -5.942E+003 -6.236E+003 -1.760E+004 -9.147E+003 -1.172E+004 -9.721E+003 -8.731E+003 -1.503E+004 -4.902E+003 -1.171E+004 -4.049E+003 -1.380E+004 -4.886E+003 -9.396E+003 -1.924E+003 -5.027E+003  4.087E+003  5.988E+003 -7.972E+002 -1.828E+003 -1.298E+003  2.890E+004  2.500E+004  2.560E+004  1.718E+004  1.563E+004  8.946E+003  7.597E+003  3.834E+003  3.808E+003  3.151E+004  2.566E+004  1.306E+004  5.010E+003 -8.860E+001  3.759E+004  3.617E+004  2.688E+004  2.175E+004  1.196E+004  9.503E+003  3.324E+003  1.535E+003 -3.643E+003 -2.882E+003 -2.388E+002 -1.811E+003  2.421E+003  1.236E+004  1.313E+004  5.116E+003  6.652E+003  1.079E+003 -2.216E+003  2.459E+004  1.830E+004  1.005E+004  3.154E+003  6.690E+002  3.934E+004  2.466E+004  1.535E+004  2.495E+003 -8.495E+002 -3.053E+003  7.754E+002 -2.003E+003 -1.350E+003 -2.574E+001 -1.041E+003 -3.401E+003 -4.941E+003 -5.251E+003 -2.088E+004 -1.016E+004 -1.361E+004 -1.044E+004 -1.011E+004 -2.178E+004 -4.524E+003 -1.260E+004 -3.757E+003 -1.527E+004 -6.001E+003 -9.682E+003 -1.802E+003 -4.767E+003  6.144E+003  5.503E+003 -1.029E+003 -2.088E+003 -1.605E+003  3.349E+004  2.863E+004  2.576E+004  1.850E+004  1.691E+004  9.780E+003  7.581E+003  4.085E+003  4.653E+003  3.417E+004  2.862E+004  1.340E+004  4.879E+003 -8.448E+001  3.887E+004  3.896E+004  3.250E+004  2.347E+004  1.181E+004  8.913E+003  3.420E+003  1.390E+003 -3.764E+003 -3.076E+003  1.214E+003 -2.325E+003  2.014E+003  1.639E+004  1.346E+004  2.584E+003  7.842E+003  1.445E+003 -2.462E+003  2.674E+004  1.977E+004  1.062E+004  3.456E+003  8.573E+002  4.422E+004  2.690E+004  1.698E+004  2.651E+003 -1.451E+003 -5.090E+003 -4.707E+003 -3.707E+002 -4.182E+003 -3.539E+003 -1.762E+003 -2.893E+003 -3.893E+003 -5.590E+003 -2.068E+004 -1.028E+004 -1.688E+004 -1.286E+004 -1.414E+004 -2.223E+004 -1.808E+002 -1.361E+004 -3.992E+003 -1.975E+004 -7.163E+003 -1.142E+004 -8.564E+002 -4.957E+003  5.770E+003  6.681E+003 -1.585E+003 -2.466E+003 -1.170E+003  3.830E+004  3.102E+004  2.954E+004  2.090E+004  1.989E+004  1.144E+004  9.547E+003  4.911E+003  6.057E+003  3.989E+004  3.348E+004  1.555E+004  6.907E+003 -5.536E+002  4.490E+004  4.026E+004  3.877E+004  2.685E+004  1.297E+004  1.126E+004  5.893E+003  2.919E+003 -5.757E+003 -2.618E+003 -7.167E+002 -3.426E+003  3.568E+003  2.047E+004  1.237E+004  4.007E+003  8.146E+003  2.025E+003 -2.420E+003  3.027E+004  2.213E+004  1.131E+004  4.423E+003  1.104E+003  5.501E+004  2.803E+004  1.963E+004  2.485E+003 -1.465E+003 -9.014E+003 -1.362E+003  1.092E+003 -1.970E+003  1.395E+002 -4.439E+003 -8.741E+003 -6.651E+003 -6.770E+003 -2.252E+004 -1.115E+004 -1.610E+004 -1.554E+004 -1.414E+004 -2.114E+004 -2.518E+003 -1.463E+004 -5.156E+003 -2.087E+004 -6.974E+003 -1.130E+004 -1.487E+003 -5.226E+003  1.064E+004  6.757E+003 -1.154E+003 -2.421E+003 -1.489E+003  4.439E+004  3.511E+004  3.178E+004  2.279E+004  2.235E+004  1.228E+004  9.651E+003  4.761E+003  5.613E+003  4.533E+004  3.643E+004  1.719E+004  5.919E+003  3.821E+002  5.204E+004  4.680E+004  4.246E+004  2.935E+004  1.394E+004  1.117E+004  3.954E+003  1.449E+003 -4.264E+003 -2.341E+003 -5.518E+002 -1.369E+003  4.597E+003  2.198E+004  1.481E+004  5.939E+003  7.818E+003  1.780E+003 -3.178E+003  3.214E+004  2.330E+004  1.198E+004  4.408E+003  5.384E+002  5.552E+004  3.097E+004  1.948E+004  1.969E+003 -1.046E+003 -7.944E+003 -1.275E+003  4.601E+003 -1.354E+003 -5.575E+003 -8.924E+003 -1.195E+004 -7.957E+003 -4.124E+003 -2.327E+004 -1.211E+004 -2.070E+004 -1.734E+004 -1.544E+004 -2.176E+004 -5.212E+003 -2.154E+004 -7.066E+003 -2.006E+004 -7.359E+003 -1.370E+004 -1.812E+003 -6.308E+003  1.072E+004  4.472E+003 -9.079E+002 -3.175E+003 -1.951E+003  4.847E+004  3.653E+004  3.161E+004  2.232E+004  2.299E+004  1.248E+004  1.001E+004  5.577E+003  7.450E+003  4.911E+004  3.671E+004  1.704E+004  6.726E+003 -3.482E+002  5.503E+004  4.592E+004  4.215E+004  2.815E+004  1.341E+004  1.130E+004  5.289E+003  3.101E+003 -5.055E+003 -3.524E+003 -2.540E+003  1.526E+003  6.607E+003  1.686E+004  1.661E+004  7.317E+003  9.709E+003  1.810E+003 -2.357E+003  3.598E+004  2.780E+004  1.424E+004  6.067E+003  9.021E+002  5.704E+004  3.639E+004  2.286E+004  4.570E+003 -5.465E+002 -1.004E+004 -3.586E+002  3.275E+003 -1.361E+003 -3.789E+002 -8.317E+003 -1.141E+004 -1.053E+004 -1.076E+004 -2.421E+004 -1.432E+004 -1.952E+004 -1.792E+004 -1.406E+004 -2.151E+004 -3.638E+003 -2.234E+004 -6.453E+003 -2.387E+004 -7.421E+003 -1.551E+004 -3.017E+003 -7.361E+003  1.601E+004  5.149E+003 -1.429E+003 -3.800E+003 -9.037E+002  5.613E+004  3.920E+004  3.582E+004  2.523E+004  2.651E+004  1.344E+004  1.031E+004  6.209E+003  8.286E+003  5.648E+004  3.819E+004  2.123E+004  7.118E+003  6.115E+002  6.316E+004  5.380E+004  4.230E+004  3.197E+004  1.877E+004  1.457E+004  5.634E+003  1.663E+003 -7.073E+003 -1.719E+003 -4.828E+002 -7.836E+002  7.977E+003  1.725E+004  1.654E+004  8.659E+003  9.548E+003  2.199E+003 -4.424E+003  3.506E+004  2.719E+004  1.444E+004  5.248E+003  6.798E+002  5.464E+004  3.894E+004  2.137E+004  4.177E+003  8.120E+002 -3.756E+003 -2.174E+003 -1.002E+003 -8.134E+002 -3.462E+003 -4.433E+003 -4.811E+003 -8.921E+003 -7.672E+003 -2.486E+004 -1.672E+004 -2.113E+004 -1.893E+004 -1.631E+004 -2.311E+004 -9.015E+003 -2.430E+004 -1.039E+004 -2.210E+004 -9.922E+003 -1.832E+004 -3.717E+003 -8.510E+003  1.195E+004  4.452E+003 -1.808E+003 -6.154E+003 -2.269E+003  5.019E+004  3.868E+004  3.634E+004  2.493E+004  2.355E+004  1.276E+004  1.032E+004  5.507E+003  8.297E+003  5.251E+004  3.816E+004  1.937E+004  7.918E+003  1.373E+003  6.124E+004  5.073E+004  4.067E+004  3.110E+004  1.863E+004  1.338E+004  7.223E+003  2.057E+003 -3.598E+003 -4.624E+003  1.441E+003 -5.599E+003  7.178E+003  2.542E+004  1.813E+004  9.002E+003  9.541E+003  3.583E+003 -5.301E+003  3.749E+004  2.619E+004  1.489E+004  4.432E+003  1.784E+003  5.826E+004  3.563E+004  2.346E+004  1.726E+003 -4.808E+003 -6.773E+002 -1.331E+002  2.079E+003 -2.665E+003 -5.566E+003 -3.051E+003 -4.712E+003 -6.920E+003 -7.022E+003 -2.780E+004 -1.698E+004 -2.306E+004 -1.853E+004 -1.648E+004 -3.125E+004 -6.709E+003 -2.657E+004 -8.806E+003 -2.449E+004 -1.096E+004 -2.043E+004 -2.740E+003 -3.583E+003  7.122E+003  5.137E+003 -3.172E+003 -5.001E+003 -8.063E+002  4.840E+004  4.198E+004  4.097E+004  2.801E+004  2.369E+004  1.499E+004  1.468E+004  7.416E+003  9.235E+003  5.133E+004  4.227E+004  2.066E+004  9.935E+003 -1.202E+003  6.121E+004  5.989E+004  4.524E+004  3.588E+004  2.052E+004  1.850E+004  6.225E+003  3.718E+003 -1.231E+004 -6.873E+003  2.378E+002 -3.200E+003  5.230E+003  2.181E+004  1.428E+004  5.907E+003  9.199E+003  4.261E+003 -3.870E+003  3.814E+004  2.455E+004  1.583E+004  5.651E+003  3.808E+003  5.332E+004  3.342E+004  2.342E+004  4.380E+003 -1.076E+004 -7.736E+003  4.453E+003 -4.105E+002 -3.140E+003 -2.906E+002 -3.614E+003 -3.859E+003 -8.822E+003 -3.119E+003 -3.635E+004 -2.414E+004 -2.956E+004 -2.332E+004 -1.450E+004 -4.516E+004 -1.684E+004 -3.328E+004 -1.767E+004 -4.059E+004 -2.008E+004 -2.618E+004 -6.834E+003 -1.164E+004 -1.146E+004 -5.483E+003 -1.344E+004 -9.674E+003 -1.767E+003  3.170E+004  2.417E+004  2.686E+004  1.587E+004  1.810E+004  9.058E+003  1.091E+004  3.667E+003  7.695E+003  4.160E+004  3.381E+004  1.876E+004  9.977E+003 -5.175E+003  5.856E+004  5.129E+004  4.140E+004  2.996E+004  2.264E+004  1.702E+004  1.140E+004  6.678E+001 -2.051E+004 -9.292E+003 -1.463E+003 -1.938E+003  2.932E+003  3.198E+004  6.732E+003 -3.939E+003  9.525E+003  7.265E+003 -4.536E+003  1.862E+004  8.842E+003  1.261E+004  8.307E+003  5.073E+003  2.755E+004  5.998E+003  1.538E+004  8.581E+003  7.409E+003 -1.629E+003 -2.602E+003 -8.526E+003 -1.314E+004 -1.142E+004 -1.327E+004 -1.617E+004 -2.302E+004 -2.445E+004 -5.835E+004 -4.871E+004 -4.815E+004 -3.916E+004 -2.805E+004 -9.749E+004 -6.675E+004 -8.362E+004 -5.430E+004 -6.350E+004 -3.844E+004 -4.194E+004 -1.223E+004 -7.285E+003 -6.534E+004 -6.708E+004 -4.549E+004 -3.150E+004 -8.892E+003 -3.589E+004 -4.821E+004 -4.822E+004 -4.215E+004 -1.955E+004 -2.501E+004 -1.168E+004 -7.438E+003  8.715E+003 -3.364E+004 -4.133E+004 -2.415E+004 -6.959E+003  3.559E+003 -1.353E+004 -4.286E+004 -3.534E+004 -2.685E+004 -1.976E+004 -7.280E+003  3.969E+003 -8.749E+002  8.182E+003 -1.017E+003  1.026E+004  4.112E+003  1.879E+004  4.073E+004 -5.624E+004 -5.106E+004 -1.831E+004  3.366E+003 -2.816E+003 -9.668E+004 -6.862E+004 -2.797E+004  9.255E+003  2.191E+004 -1.300E+005 -1.095E+005 -3.963E+004 -1.418E+003  4.877E+003  1.456E+004  1.217E+004  1.436E+004  1.269E+003 -1.504E+004 -6.679E+003 -1.084E+004 -2.342E+004 -3.609E+004 -1.713E+005 -1.558E+005 -1.272E+005 -6.697E+004 -2.723E+004 -3.210E+005 -2.981E+005 -3.002E+005 -2.421E+005 -2.168E+005 -1.563E+005 -1.065E+005 -4.638E+004  1.602E+003 -3.701E+005 -3.362E+005 -2.219E+005 -1.002E+005  2.146E+004 -4.015E+005 -3.896E+005 -3.582E+005 -2.911E+005 -2.208E+005 -1.653E+005 -9.913E+004 -5.610E+004  1.836E+004 -3.884E+005 -3.274E+005 -1.690E+005 -3.238E+004  1.920E+004 -3.750E+005 -3.159E+005 -2.875E+005 -1.909E+005 -1.113E+005 -3.145E+004  4.269E+004  3.227E+004  2.148E+004
        </DataArray>
        <DataArray type="Float32" Name="stress_yy" NumberOfComponents="1" format="ascii">