<?xml version="1.0"?>
<VTKFile type="UnstructuredGrid" version="0.1" byte_order="LittleEndian">
  <UnstructuredGrid>
    <Piece NumberOfPoints="1826" NumberOfCells="499">
      <PointData>
        <DataArray type="Float32" Name="stress_xx" NumberOfComponents="1" format="ascii">
  4.025E+006  3.411E+006  3.300E+006  3.339E+006  3.406E+006  3.561E+006  3.612E+006  3.727E+006  3.684E+006  3.396E+006  2.628E+006  2.598E+006  2.707E+006  2.744E+006  3.106E+006  2.517E+006  2.330E+006  2.279E+006  2.240E+006  2.318E+006  2.311E+006  2.377E+006  2.336E+006  2.362E+006  1.731E+006  1.624E+006  1.657E+006  1.666E+006  1.812E+006  1.438E+006  1.313E+006  1.254E+006  1.198E+006  1.226E+006  1.202E+006  1.231E+006  1.199E+006  8.946E+005  6.419E+005  5.771E+005  5.711E+005  5.610E+005  5.802E+004  4.468E+004  4.016E+004  3.015E+004  2.385E+004  1.753E+004  9.567E+003  1.533E+003 -7.000E+003 -2.654E+005 -2.536E+004  2.933E+005  5.554E+005  6.617E+005 -2.245E+005 -7.763E+003  2.429E+005  4.309E+005  5.067E+005 -1.220E+005  1.693E+004  1.772E+005  2.869E+005  3.285E+005 -2.554E+003 -3.299E+003  9.772E+002  6.361E+001 -1.722E+003  3.469E+005  3.853E+005  2.943E+005  3.406E+005  3.933E+005  4.756E+005  5.917E+005  6.211E+005  6.833E+005  3.642E+005  3.422E+005  4.278E+005  6.043E+005  6.878E+005  2.766E+005  3.390E+005  2.798E+005  3.159E+005  3.460E+005  4.065E+005  4.986E+005  5.154E+005  5.695E+005  2.340E+005  2.353E+005  2.814E+005  3.957E+005  4.479E+005  1.447E+005  1.837E+005  1.434E+005  1.617E+005  1.748E+005  2.068E+005  2.561E+005  2.646E+005  2.924E+005  8.337E+004  8.213E+004  9.452E+004  1.324E+005  1.496E+005  4.065E+003  5.354E+003  5.531E+003  5.359E+003  3.662E+003  2.631E+002 -1.261E+003 -9.440E+002 -2.426E+002 -1.037E+005 -7.640E+004  2.461E+004  1.065E+005  1.572E+005 -7.435E+004 -7.362E+004  5.958E+003  6.032E+004  9.922E+004 -3.691E+004 -4.059E+004  1.335E+004  4.180E+004  6.456E+004  1.219E+003 -2.114E+003 -1.608E+002  5.286E+002  2.653E+002  8.367E+004  7.414E+004  8.459E+004  8.442E+004  7.866E+004  1.048E+005  1.252E+005  1.394E+005  1.472E+005  5.855E+004  7.433E+004  6.481E+004  1.078E+005  1.243E+005  6.420E+004  6.964E+004  9.086E+004  8.865E+004  7.817E+004  1.026E+005  1.177E+005  1.272E+005  1.307E+005  3.893E+004  6.273E+004  5.095E+004  8.162E+004  9.259E+004  3.009E+004  3.362E+004  4.627E+004  4.158E+004  3.088E+004  4.396E+004  5.141E+004  5.608E+004  5.860E+004  1.058E+004  2.439E+004  1.563E+004  2.619E+004  3.043E+004 -1.872E+003  8.835E+002  6.097E+003  2.420E+003  5.098E+002  1.087E+003  1.272E+003  1.575E+003  2.022E+003 -4.545E+002  4.051E+003  1.420E+004  3.305E+004  4.240E+004 -3.546E+003 -2.360E+003  3.849E+003  1.477E+004  2.207E+004 -2.672E+003  2.133E+003  6.180E+003  1.349E+004  1.691E+004  3.332E+003 -2.290E+002  2.387E+002  2.501E+002  3.067E+002  4.584E+003  6.849E+003  4.985E+003  6.156E+003  1.032E+004  1.173E+004  1.527E+004  1.671E+004  1.697E+004  1.019E+004  1.197E+004  1.644E+004  2.229E+004  2.374E+004  6.318E+003  1.043E+004  1.115E+004  1.211E+004  1.611E+004  1.758E+004  2.268E+004  2.269E+004  2.402E+004  7.234E+003  8.758E+003  1.135E+004  1.633E+004  1.711E+004  3.808E+003  5.080E+003  3.544E+003  3.616E+003  6.356E+003  6.275E+003  9.325E+003  8.559E+003  1.073E+004  1.250E+003  2.569E+003  2.695E+003  5.554E+003  5.349E+003 -1.769E+003  1.032E+002  2.470E+003  2.564E+003  9.311E+002  1.674E+003  2.568E+003  2.230E+003  5.128E+002 -4.177E+003 -3.810E+003  3.653E+002  3.458E+003  3.165E+003 -2.856E+003 -3.412E+003  2.678E+002  1.860E+003  1.932E+003 -1.697E+003 -1.488E+003  1.203E+003  2.177E+003  2.387E+003  1.788E+003 -3.573E+002  1.115E+003 -8.177E+002  6.751E+002  3.378E+003  3.165E+003  3.538E+003  3.461E+003  2.420E+003  2.457E+003  2.279E+003  2.032E+003  1.940E+003  1.432E+003  2.155E+003  1.321E+003  1.487E+003  2.011E+003  2.323E+003  2.685E+003  2.874E+003  3.128E+003  1.599E+003  2.998E+003  2.362E+003  3.726E+003  2.743E+003  9.156E+002  2.443E+003  1.668E+003  2.602E+003  2.915E+003  8.610E+002  1.400E+003  2.707E+003  2.048E+003  1.258E+003  1.916E+003  3.037E+003  1.942E+003  2.149E+003  4.532E+002  1.283E+003  1.183E+003  2.986E+003  1.174E+003 -2.991E+002 -4.815E+002 -9.437E+002 -8.626E+002 -3.740E+002  1.208E+003  3.525E+003  1.719E+003 -1.560E+003  3.712E+002  1.618E+002 -7.030E+002 -2.201E+002 -1.336E+003 -4.813E+002 -9.025E+001 -8.068E+002 -9.972E+002 -1.146E+003  9.147E+002 -4.876E+002 -3.370E+002 -2.367E+002 -6.004E+002 -2.845E+003 -1.907E+002  1.998E+002 -8.011E+002  7.205E+002  7.414E+001 -3.779E+002 -2.938E+002 -8.395E+002 -3.638E+002 -1.869E+003 -2.726E+003 -1.804E+003 -2.840E+002  5.444E+002 -2.436E+002 -3.649E+002 -1.857E+003 -8.583E+001 -4.089E+001 -1.363E+002 -1.135E+003 -7.664E+002 -7.558E+002 -1.390E+003 -1.925E+003 -1.540E+003  4.253E+002  1.071E+002  8.193E+002  8.370E+002 -5.789E+002  4.950E+002 -6.084E+002 -4.714E+002  1.994E+003  1.098E+003  2.446E+003  2.964E+002  1.446E+002 -3.757E+002  5.234E+002  2.104E+003  1.336E+003  1.120E+003  1.065E+003 -4.965E+002  2.587E+003  1.520E+003 -8.026E+002 -7.900E+002 -8.614E+002  8.113E+001  8.331E+002 -1.717E+003 -2.386E+003  2.795E+002 -4.983E+002 -1.726E+003 -1.678E+003 -3.009E+003 -7.748E+002 -4.918E+002 -1.207E+003 -1.038E+003 -1.824E+003  1.782E+003 -6.344E+002 -1.304E+003 -4.386E+002 -1.859E+003 -5.723E+003 -5.734E+002 -5.021E+002 -6.935E+002  4.881E+002  7.086E+002 -3.217E+002 -4.138E+002 -1.583E+003 -2.134E+003 -3.754E+003 -4.422E+003 -4.413E+003 -2.043E+003  2.687E+002 -1.039E+003 -2.314E+003 -4.690E+003 -1.994E+003 -1.581E+001 -3.762E+002 -1.875E+003 -1.620E+003 -2.678E+003 -3.507E+003 -5.257E+003 -4.236E+003 -2.531E+003 -5.941E+002  8.935E+002  6.149E+002 -2.054E+003 -4.877E+002 -1.539E+003 -5.236E+002  3.166E+003  1.920E+003  3.479E+003  5.018E+002  2.655E+002 -4.654E+002  1.272E+003  3.426E+003  1.643E+003  2.391E+003  7.521E+002  5.520E+002  7.037E+003  3.555E+003 -1.043E+003 -2.865E+002 -1.356E+002  3.755E+000 -2.557E+002 -1.784E+003 -1.738E+003  6.263E+002 -6.972E+002 -3.443E+003 -5.128E+003 -5.927E+003 -7.660E+002 -7.295E+002 -2.653E+003 -3.557E+003 -5.033E+003  2.029E+003 -1.021E+003 -1.541E+003 -1.485E+003 -2.533E+003 -6.567E+003 -3.817E+002  3.355E+002  5.590E+002  5.145E+002  6.860E+002 -5.742E+002 -8.879E+002 -3.264E+003 -4.168E+003 -6.870E+003 -7.489E+003 -9.655E+003 -8.610E+003  1.628E+001 -1.579E+003 -4.246E+003 -7.666E+003 -7.815E+003 -1.137E+003 -1.159E+003 -2.624E+003 -2.818E+003 -5.133E+003 -5.181E+003 -7.983E+003 -7.274E+003 -8.738E+003  1.551E+001  1.079E+003  8.848E+002 -1.346E+003 -1.078E+003  5.656E+001 -2.333E+001  3.704E+003  2.213E+003  6.091E+003  1.293E+003  4.550E+003 -3.028E+002  4.814E+003  2.989E+003  4.034E+003  4.984E+003  4.974E+003  3.898E+003  1.827E+003  1.136E+003  4.126E+002  4.869E+002  1.627E+003  2.365E+003  3.515E+003  2.030E+003  2.605E+002  3.981E+002 -1.025E+003 -5.136E+003 -8.723E+003 -1.066E+004 -1.929E+002 -1.279E+003 -3.541E+003 -6.006E+003 -8.128E+003  5.300E+002 -1.076E+003 -1.723E+003 -2.093E+003 -3.461E+003 -4.413E+003 -2.022E+003  9.601E+002  2.089E+002  5.171E+002  1.384E+003 -6.160E+002 -1.209E+003 -3.656E+003 -5.046E+003 -7.435E+003 -9.269E+003 -1.049E+004 -1.362E+004  8.858E+001 -1.816E+003 -5.050E+003 -8.730E+003 -1.227E+004 -1.557E+003 -1.442E+003 -2.890E+003 -3.336E+003 -5.864E+003 -6.051E+003 -8.709E+003 -8.786E+003 -1.203E+004  7.524E+001  1.237E+003  4.665E+002 -1.535E+003 -3.444E+003  4.171E+002  3.930E+002  4.103E+003  2.322E+003  5.756E+003  2.114E+003  4.514E+003  6.382E+002  2.808E+003  4.198E+003  5.004E+003  4.707E+003  5.621E+003  4.360E+003  1.995E+003  8.960E+002  9.866E+002  1.553E+003  1.128E+003  1.934E+003  2.394E+003  2.281E+003  2.317E+003  6.037E+002 -1.089E+003 -6.083E+003 -9.769E+003 -1.376E+004 -3.489E+002 -1.444E+003 -3.799E+003 -6.645E+003 -8.324E+003  1.193E+003 -1.407E+003 -1.590E+003 -3.291E+003 -3.203E+003 -6.092E+003 -1.647E+003  4.377E+002 -5.204E+002  1.087E+003  1.268E+003 -6.629E+002 -1.532E+003 -4.275E+003 -5.878E+003 -8.558E+003 -1.052E+004 -1.210E+004 -1.538E+004 -1.225E+002 -2.080E+003 -5.792E+003 -1.014E+004 -1.260E+004 -1.847E+003 -1.664E+003 -3.088E+003 -3.730E+003 -6.714E+003 -6.853E+003 -1.006E+004 -9.435E+003 -1.156E+004  5.827E+001  1.252E+003  5.162E+002 -9.513E+002 -2.813E+003  1.293E+003  1.058E+003  4.686E+003  2.851E+003  6.603E+003  2.389E+003  6.742E+003  7.915E+002  4.870E+003  4.355E+003  6.795E+003  6.392E+003  7.159E+003  5.335E+003  4.955E+003  4.960E+003  6.347E+003  3.915E+003  3.132E+003  4.195E+003  3.186E+003  3.031E+003  1.842E+003  6.613E+002 -1.184E+003 -5.967E+003 -9.402E+003 -1.241E+004 -5.143E+002 -1.434E+003 -4.329E+003 -6.444E+003 -1.018E+004  1.326E+003 -1.102E+003 -1.495E+003 -3.337E+003 -2.807E+003 -7.685E+003 -1.619E+003  1.060E+003  1.077E+002  1.528E+003  1.684E+003 -1.035E+003 -1.349E+003 -4.580E+003 -5.258E+003 -1.001E+004 -1.190E+004 -1.516E+004 -1.610E+004 -6.487E+001 -2.289E+003 -6.008E+003 -1.138E+004 -1.495E+004 -2.547E+003 -1.733E+003 -3.990E+003 -4.044E+003 -7.510E+003 -7.732E+003 -1.156E+004 -1.072E+004 -1.480E+004  1.236E+002  1.977E+003  7.653E+002 -2.148E+003 -3.920E+003  9.399E+002  2.980E+002  6.615E+003  3.422E+003  7.680E+003  3.071E+003  6.596E+003  1.472E+003  4.348E+003  6.389E+003  7.271E+003  7.932E+003  6.793E+003  5.539E+003  3.055E+003  3.326E+003  2.964E+003  3.737E+003  4.742E+003  5.197E+003  5.471E+003  4.558E+003  3.120E+003  1.057E+003 -1.184E+003 -7.290E+003 -1.271E+004 -1.635E+004 -6.833E+002 -1.746E+003 -4.960E+003 -9.309E+003 -1.287E+004  2.033E+003 -1.397E+003 -2.848E+003 -3.472E+003 -6.058E+003 -8.670E+003 -3.269E+003  7.103E+002 -4.247E+002  1.583E+003  2.009E+003 -1.003E+003 -1.989E+003 -5.786E+003 -8.108E+003 -1.338E+004 -1.804E+004 -2.095E+004 -2.434E+004  2.751E+002 -2.972E+003 -8.604E+003 -1.584E+004 -2.020E+004 -1.878E+003 -2.254E+003 -4.669E+003 -5.719E+003 -9.957E+003 -1.046E+004 -1.484E+004 -1.452E+004 -1.792E+004 -7.650E+001  1.554E+003  1.436E+002 -3.792E+003 -4.728E+003  2.032E+002  2.487E+002  5.826E+003  3.139E+003  8.975E+003  2.150E+003  5.060E+003 -8.942E+002  6.230E+003  6.128E+003  6.634E+003  6.640E+003  8.789E+003  6.872E+003  7.157E+003  4.360E+003  1.910E+003  1.270E+003 -1.644E+003  1.508E+003  6.282E+003  3.826E+003  1.232E+003  8.458E+002 -1.343E+003 -9.989E+003 -1.605E+004 -2.498E+004 -5.957E+002 -2.474E+003 -6.991E+003 -1.332E+004 -1.806E+004  1.966E+003 -1.126E+003 -4.430E+003 -4.240E+003 -9.465E+003 -1.115E+004 -5.756E+003  2.357E+003 -2.159E+002  2.596E+003  2.029E+003 -9.698E+002 -1.641E+003 -7.183E+003 -1.001E+004 -1.652E+004 -1.843E+004 -2.759E+004 -3.230E+004 -2.276E+002 -3.584E+003 -1.072E+004 -1.908E+004 -2.534E+004 -3.096E+003 -2.682E+003 -5.856E+003 -7.473E+003 -1.392E+004 -1.294E+004 -1.803E+004 -1.898E+004 -2.598E+004  2.563E+002  1.469E+003  1.159E+002 -5.365E+003 -6.640E+003  1.631E+003 -2.203E+002  7.610E+003  3.068E+003  1.082E+004  4.119E+002  6.801E+003 -5.529E+002  6.170E+003  6.533E+003  7.876E+003  6.988E+003  5.879E+003  8.457E+003 -4.645E+002  3.159E+003  2.676E+003  1.635E+003  1.093E+002  2.456E+003  5.108E+003  5.339E+003  4.074E+003  1.402E+003 -2.516E+003 -1.143E+004 -2.094E+004 -4.252E+004 -5.095E+002 -2.891E+003 -7.485E+003 -1.497E+004 -2.702E+004  4.588E+003  4.743E+002 -6.440E+003 -4.776E+003 -1.305E+004 -7.891E+003 -5.942E+003  1.165E+001 -8.902E+002  6.775E+002  3.760E+003 -5.482E+002 -1.634E+003 -7.546E+003 -1.159E+004 -1.717E+004 -2.374E+004 -3.462E+004 -4.530E+004  1.861E+001 -3.785E+003 -1.242E+004 -2.200E+004 -3.286E+004 -2.994E+003 -2.928E+003 -7.207E+003 -8.079E+003 -1.351E+004 -1.530E+004 -2.128E+004 -2.096E+004 -2.551E+004  6.123E+002  1.882E+003  8.760E+002 -7.946E+003 -3.495E+003  7.454E+003  4.244E+003  1.049E+004  6.685E+003  1.370E+004  3.039E+003  2.594E+003 -1.307E+003  1.317E+004  8.846E+002  9.622E+003  7.964E+003  4.544E+003  7.157E+003 -9.900E+002  7.690E+001  1.005E+003  1.158E+003 -1.110E+003 -3.817E+003 -1.696E+003 -4.295E+003 -7.239E+003  4.623E+002 -3.114E+003 -1.118E+004 -1.949E+004 -3.207E+004  1.973E+002 -2.166E+003 -6.635E+003 -1.478E+004 -2.341E+004 -1.111E+003  5.375E+002 -1.649E+003 -3.933E+003 -9.806E+003  1.656E+004 -3.097E+001 -6.565E+002 -1.126E+003 -1.840E+003  3.041E+003 -1.047E+003 -1.902E+003 -8.272E+003 -9.542E+003 -1.639E+004 -1.375E+004 -3.239E+004 -3.864E+004 -5.453E+002 -4.491E+003 -1.086E+004 -1.429E+004 -3.256E+004 -5.349E+003 -3.804E+003 -7.332E+003 -7.517E+003 -1.282E+004 -1.233E+004 -1.608E+004 -1.908E+004 -2.747E+004  2.109E+003  2.065E+003  1.317E+003 -1.009E+003 -5.587E+003  7.549E+003  5.897E+003  1.400E+004  1.063E+004  1.823E+004  6.497E+003  9.974E+003  2.875E+003  1.225E+004 -4.948E+003  8.858E+003  1.542E+004  9.461E+003  8.073E+003 -3.860E+003 -2.987E+003 -1.638E+002  5.916E+002  1.100E+003  1.872E+003  2.462E+003  2.790E+002 -6.357E+003  1.267E+003 -2.844E+003 -1.238E+004 -1.987E+004 -3.216E+004 -6.099E+002 -2.376E+003 -7.347E+003 -1.635E+004 -2.512E+004  2.131E+003  8.827E+002 -1.567E+003 -4.486E+003 -1.110E+004  1.277E+004  4.321E+003 -1.012E+003  6.946E+002 -1.383E+003  3.364E+003 -1.070E+003 -2.336E+003 -8.676E+003 -1.096E+004 -1.998E+004 -2.327E+004 -4.260E+004 -4.642E+004 -3.466E+002 -4.766E+003 -1.396E+004 -2.135E+004 -3.591E+004 -3.400E+003 -3.428E+003 -7.860E+003 -9.567E+003 -1.689E+004 -1.586E+004 -2.139E+004 -2.343E+004 -3.229E+004  1.097E+003  1.516E+003  1.277E+003 -7.383E+003 -3.086E+003  7.704E+003  6.002E+003  1.360E+004  1.100E+004  1.914E+004  5.504E+003  4.112E+003 -9.582E+002  1.754E+004  1.389E+003  1.014E+004  1.172E+004  9.201E+003  8.373E+003 -4.189E+003 -2.482E+003 -6.012E+002 -2.921E+003 -2.653E+003 -2.263E+003  1.277E+003 -3.546E+003 -8.807E+003  1.655E+003 -3.331E+003 -1.493E+004 -2.731E+004 -4.170E+004 -8.383E+002 -3.088E+003 -7.724E+003 -2.111E+004 -2.782E+004  4.574E+003  3.975E+000 -4.590E+003 -4.358E+003 -1.152E+004  9.400E+003  4.161E+003 -1.908E+002  1.145E+002 -2.882E+003  4.488E+003 -1.038E+003 -1.997E+003 -9.290E+003 -1.267E+004 -2.145E+004 -2.648E+004 -4.236E+004 -5.126E+004  1.684E+001 -5.166E+003 -1.441E+004 -2.555E+004 -4.025E+004 -4.556E+003 -4.007E+003 -9.475E+003 -9.941E+003 -1.665E+004 -1.883E+004 -2.610E+004 -2.548E+004 -3.409E+004  1.378E+003  3.282E+003  1.542E+003 -7.354E+003 -6.417E+003  1.150E+004  8.359E+003  1.598E+004  1.054E+004  2.134E+004  4.679E+003  5.041E+003 -3.295E+003  1.740E+004  1.394E+003  1.075E+004  1.448E+004  7.222E+003  1.430E+004  2.215E+002 -1.770E+003 -5.760E+002 -3.070E+003 -3.531E+003 -3.916E+003 -1.562E+003 -3.079E+003 -3.053E+003  7.722E+002 -3.363E+003 -1.607E+004 -2.685E+004 -4.288E+004  2.276E+002 -3.141E+003 -1.031E+004 -1.990E+004 -2.956E+004 -5.478E+002  1.319E+003 -3.493E+003 -4.879E+003 -1.305E+004  2.217E+004  5.253E+003 -1.737E+003 -3.878E+002 -3.076E+003  3.680E+003 -1.501E+003 -1.618E+003 -1.127E+004 -1.394E+004 -2.552E+004 -2.674E+004 -4.423E+004 -5.005E+004 -1.063E+003 -6.527E+003 -1.588E+004 -2.596E+004 -4.177E+004 -6.325E+003 -5.331E+003 -1.184E+004 -1.102E+004 -1.823E+004 -2.002E+004 -2.852E+004 -2.943E+004 -3.942E+004  4.827E+003  2.174E+003  1.329E+003 -9.839E+003 -5.452E+003  1.530E+004  7.896E+003  1.827E+004  1.279E+004  2.341E+004  5.284E+003  5.086E+003 -7.849E+001  1.969E+004  8.756E+002  9.004E+003  1.930E+004  9.593E+003  1.206E+004 -5.682E+003 -6.172E+003 -6.122E+003 -4.350E+003 -4.009E+002 -2.780E+003 -2.592E+003 -1.780E+003 -5.090E+003  2.317E+003 -4.349E+003 -1.582E+004 -3.236E+004 -4.975E+004 -1.945E+003 -2.779E+003 -1.097E+004 -2.207E+004 -3.439E+004  2.642E+003  8.434E+002 -4.313E+003 -5.840E+003 -1.668E+004  1.632E+004  5.367E+003  1.196E+003 -1.453E+003 -2.618E+003  6.033E+003 -5.176E+002 -1.913E+003 -1.106E+004 -1.619E+004 -2.440E+004 -2.719E+004 -4.671E+004 -5.734E+004  6.366E+001 -5.912E+003 -1.699E+004 -2.892E+004 -4.741E+004 -6.973E+003 -5.493E+003 -1.152E+004 -1.207E+004 -1.855E+004 -2.209E+004 -3.297E+004 -3.442E+004 -4.203E+004  4.905E+003  3.626E+003  1.066E+003 -7.623E+003 -7.825E+003  1.404E+004  7.841E+003  1.886E+004  1.281E+004  1.998E+004  5.173E+003  1.003E+004 -2.301E+003  1.846E+004 -5.036E+003  1.122E+004  1.704E+004  9.775E+003  1.223E+004 -1.179E+004 -6.552E+003 -5.217E+003 -2.857E+003  9.417E+002 -2.966E+003 -1.640E+003 -6.286E+003 -9.014E+003  1.241E+003 -4.567E+003 -1.768E+004 -3.554E+004 -5.003E+004  3.307E+002 -3.410E+003 -1.152E+004 -2.654E+004 -3.317E+004 -7.123E+002  1.063E+002 -6.321E+003 -5.665E+003 -1.578E+004  2.100E+004  2.515E+003 -2.877E+003  9.542E+002 -2.341E+003  3.841E+003 -8.762E+002 -1.176E+003 -1.184E+004 -1.635E+004 -2.659E+004 -3.038E+004 -4.772E+004 -5.671E+004 -1.756E+003 -6.252E+003 -1.913E+004 -2.884E+004 -4.559E+004 -6.441E+003 -5.851E+003 -1.198E+004 -1.241E+004 -2.192E+004 -2.096E+004 -3.207E+004 -3.140E+004 -4.111E+004  4.921E+003  2.716E+003  3.658E+003 -1.000E+004 -3.693E+003  2.221E+004  1.327E+004  1.929E+004  1.388E+004  2.921E+004  9.049E+003  9.798E+003  4.767E+003  2.829E+004 -1.378E+003  1.048E+004  1.712E+004  1.152E+004  1.796E+004 -6.405E+003 -8.359E+003 -7.307E+003 -5.339E+003 -6.619E+003 -3.791E+003  1.050E+003 -2.738E+003 -7.944E+003  1.754E+003 -4.944E+003 -1.713E+004 -3.682E+004 -4.879E+004  9.165E+001 -3.735E+003 -1.255E+004 -2.814E+004 -3.384E+004  2.347E+003  2.870E+002 -4.234E+003 -5.086E+003 -1.584E+004  1.932E+004  2.639E+003 -2.874E+002 -3.599E+002 -3.524E+003  5.488E+003 -1.184E+003 -2.715E+003 -1.518E+004 -1.942E+004 -3.035E+004 -2.844E+004 -5.011E+004 -5.648E+004 -7.715E+002 -8.292E+003 -2.060E+004 -3.231E+004 -4.609E+004 -7.733E+003 -6.880E+003 -1.495E+004 -1.465E+004 -2.427E+004 -2.349E+004 -3.752E+004 -3.387E+004 -4.271E+004  4.580E+003  4.019E+003  2.451E+002 -8.525E+003 -3.785E+003  1.758E+004  1.026E+004  2.277E+004  1.654E+004  2.639E+004  7.510E+003  1.511E+004  1.287E+003  2.791E+004  8.430E+002  1.525E+004  1.924E+004  1.684E+004  1.687E+004 -1.177E+004 -8.144E+003 -5.117E+003 -5.293E+003 -1.569E+003 -3.746E+003  2.078E+003 -2.236E+003 -1.004E+004  2.238E+003 -6.357E+003 -2.129E+004 -3.813E+004 -5.614E+004 -1.621E+003 -3.924E+003 -1.310E+004 -2.657E+004 -3.736E+004  4.422E+003 -1.343E+003 -7.683E+003 -3.844E+003 -1.696E+004  2.471E+004  8.468E+003  1.206E+003 -3.156E+003 -1.719E+003  7.218E+003 -1.439E+003 -3.887E+003 -1.357E+004 -2.133E+004 -2.990E+004 -3.828E+004 -5.190E+004 -6.385E+004  9.313E+002 -7.419E+003 -2.066E+004 -3.794E+004 -4.889E+004 -7.397E+003 -6.452E+003 -1.313E+004 -1.439E+004 -2.095E+004 -2.743E+004 -3.840E+004 -3.510E+004 -4.149E+004  1.322E+003  5.705E+003  7.056E+003 -1.010E+004 -4.876E+003  1.479E+004  1.332E+004  2.548E+004  1.737E+004  2.938E+004  9.688E+003  1.366E+004  5.721E+002  2.399E+004 -8.481E+002  1.397E+004  1.721E+004  1.652E+004  1.739E+004  3.576E+003 -5.603E+003 -5.998E+003 -5.398E+003 -1.012E+004 -2.990E+003  7.264E+002 -5.052E+002 -3.756E+003  4.856E+002 -6.778E+003 -2.126E+004 -3.720E+004 -6.067E+004 -5.277E+002 -3.881E+003 -1.522E+004 -2.809E+004 -3.876E+004  1.733E+003 -1.781E+003 -5.949E+003 -7.283E+003 -1.615E+004  2.641E+004  9.848E+003 -1.593E+003 -2.375E+002 -4.624E+003  5.796E+003 -1.427E+003 -1.950E+003 -1.523E+004 -1.600E+004 -3.317E+004 -3.405E+004 -5.891E+004 -6.246E+004 -1.752E+003 -7.908E+003 -1.984E+004 -3.401E+004 -4.827E+004 -6.799E+003 -6.971E+003 -1.638E+004 -1.240E+004 -2.392E+004 -2.532E+004 -4.193E+004 -3.875E+004 -4.502E+004  2.614E+003  6.936E+003  6.066E+003 -5.930E+003 -2.704E+003  1.358E+004  1.284E+004  3.023E+004  1.754E+004  3.674E+004  1.424E+004  2.034E+004  4.293E+003  3.039E+004 -3.487E+003  1.773E+004  2.505E+004  1.763E+004  2.115E+004 -1.114E+004 -8.267E+003 -2.237E+003 -7.650E+003 -8.503E+003 -6.956E+003 -7.086E+000  2.871E+003 -6.773E+002  2.332E+003 -3.901E+003 -2.056E+004 -3.061E+004 -5.731E+004 -2.260E+003 -5.507E+003 -1.273E+004 -2.780E+004 -4.152E+004  4.092E+003 -4.253E+003 -2.262E+003 -3.280E+003 -1.226E+004  2.605E+004  1.096E+004 -1.452E+003  4.050E+003 -6.873E+003  9.403E+003 -7.762E+002 -4.698E+003 -1.142E+004 -1.384E+004 -2.223E+004 -1.759E+004 -4.497E+004 -5.846E+004  6.105E+002 -5.316E+003 -1.422E+004 -2.078E+004 -3.941E+004 -1.139E+004 -3.263E+003 -8.433E+003 -8.317E+003 -1.565E+004 -1.287E+004 -2.426E+004 -1.805E+004 -3.084E+004  3.546E+003  1.128E+004  1.595E+004  6.966E+003  1.168E+004  2.055E+004  1.402E+004  2.914E+004  2.682E+004  4.175E+004  2.206E+004  3.918E+004  1.763E+004  3.936E+004  1.855E+003  2.019E+004  2.644E+004  3.226E+004  2.792E+004 -2.691E+003 -4.766E+003 -6.858E+003 -4.348E+003 -2.311E+003 -2.036E+003  7.086E+003 -5.221E+003 -7.736E+003 -7.073E+003 -6.556E+003 -8.428E+003 -5.195E+003 -2.242E+004 -1.051E+003 -7.480E+003 -8.693E+003 -1.128E+004 -1.728E+004  1.395E+002 -6.069E+003 -7.252E+003  6.451E+003 -5.372E+003  3.304E+004  8.113E+003 -4.234E+003  2.651E+003 -9.292E+003 -8.018E+003  7.059E+002  1.996E+003  5.492E+003  2.493E+004  2.624E+004  3.733E+004  3.512E+004  3.106E+004  3.947E+001  8.726E+003  2.487E+004  4.231E+004  4.696E+004  2.294E+003  7.009E+003  8.044E+003  2.278E+004  2.262E+004  3.700E+004  3.889E+004  4.825E+004  4.884E+004  8.005E+003  3.230E+004  5.121E+004  5.840E+004  7.609E+004  1.572E+004  2.506E+004  5.032E+004  4.287E+004  7.004E+004  5.729E+004  7.198E+004  6.371E+004  9.714E+004 -1.206E+004  2.295E+004  4.193E+004  4.016E+004  5.259E+004 -1.566E+004 -1.628E+004 -1.147E+004 -6.933E+003 -7.257E+003 -8.091E+003 -5.928E+003  2.679E+003 -1.629E+003  1.858E+003 -9.117E+002  4.547E+004  9.918E+004  1.299E+005 -1.440E+004 -4.098E+003  3.041E+004  7.329E+004  9.912E+004 -3.761E+003 -6.338E+003  1.957E+004  4.795E+004  6.282E+004  3.146E+004  1.753E+004  8.170E+003  1.248E+003 -1.017E+003 -1.009E+004 -2.105E+004 -2.517E+004  3.353E+004  9.974E+004  1.965E+005  3.046E+005  3.246E+005  3.677E+005 -2.335E+003  3.911E+004  1.724E+005  3.357E+005  3.936E+005 -2.361E+003  6.215E+004  9.279E+004  1.686E+005  2.368E+005  2.946E+005  3.525E+005  3.782E+005  4.105E+005 -8.857E+003  1.047E+005  2.349E+005  3.244E+005  3.861E+005 -6.225E+002  5.113E+004  1.083E+005  1.572E+005  2.258E+005  2.413E+005  2.808E+005  2.848E+005  3.337E+005 -2.241E+004  5.188E+004  1.185E+005  1.582E+005  1.876E+005 -3.379E+004 -1.937E+004 -2.310E+003  6.305E+003  2.896E+003  7.903E+003  1.543E+004  9.850E+003  1.456E+004
        </DataArray>
        <DataArray type="Float32" Name="stress_yy" NumberOfComponents="1" format="ascii">